 Coordinates from ORCA-job /tmp/orca_opt/1-bromobutane_T2
GAUSSIAN             34 MOL ORBITALS    748 PRIMITIVES       14 NUCLEI
  C    1    (CENTRE  1)   6.85496545 -0.88866960  0.00055940  CHARGE =  6.0
  H    2    (CENTRE  2)   6.80525790 -2.10694369  1.66663460  CHARGE =  1.0
  H    3    (CENTRE  3)   6.81237400 -2.10888718 -1.66417991  CHARGE =  1.0
  H    4    (CENTRE  4)   8.66072180  0.10783355  0.00307110  CHARGE =  1.0
  C    5    (CENTRE  5)   4.64492979  0.94489749 -0.00480536  CHARGE =  6.0
  H    6    (CENTRE  6)   4.76389740  2.17438718 -1.66492620  CHARGE =  1.0
  H    7    (CENTRE  7)   4.76873899  2.18755465  1.64532683  CHARGE =  1.0
  C    8    (CENTRE  8)   2.10041884 -0.40421694  0.00343420  CHARGE =  6.0
  H    9    (CENTRE  9)   1.96270010 -1.62928732  1.66189622  CHARGE =  1.0
  H   10    (CENTRE 10)   1.95413837 -1.63173632 -1.65281908  CHARGE =  1.0
  C   11    (CENTRE 11)  -0.06648613  1.44856370  0.00453311  CHARGE =  6.0
  H   12    (CENTRE 12)  -0.06778909  2.64303244 -1.66946272  CHARGE =  1.0
  H   13    (CENTRE 13)  -0.07180919  2.63845888  1.68180493  CHARGE =  1.0
  Br  14    (CENTRE 14)  -3.33689137 -0.25365315 -0.00084782  CHARGE = 35.0
CENTRE ASSIGNMENTS    1  1  1  1  1  1  1  1  1  1  1  1  1  1  1  1  1  1  1  1
CENTRE ASSIGNMENTS    1  1  1  1  1  1  1  1  1  1  1  1  1  1  1  1  1  1  1  1
CENTRE ASSIGNMENTS    1  1  1  1  1  1  1  1  1  1  1  1  1  1  1  1  1  1  1  1
CENTRE ASSIGNMENTS    1  1  1  1  1  1  1  1  1  1  1  1  2  2  2  2  2  2  2  2
CENTRE ASSIGNMENTS    2  2  2  2  2  2  2  2  2  2  2  2  2  2  2  2  2  2  2  3
CENTRE ASSIGNMENTS    3  3  3  3  3  3  3  3  3  3  3  3  3  3  3  3  3  3  3  3
CENTRE ASSIGNMENTS    3  3  3  3  3  3  4  4  4  4  4  4  4  4  4  4  4  4  4  4
CENTRE ASSIGNMENTS    4  4  4  4  4  4  4  4  4  4  4  4  4  5  5  5  5  5  5  5
CENTRE ASSIGNMENTS    5  5  5  5  5  5  5  5  5  5  5  5  5  5  5  5  5  5  5  5
CENTRE ASSIGNMENTS    5  5  5  5  5  5  5  5  5  5  5  5  5  5  5  5  5  5  5  5
CENTRE ASSIGNMENTS    5  5  5  5  5  5  5  5  5  5  5  5  5  5  5  5  5  5  5  5
CENTRE ASSIGNMENTS    5  5  5  5  5  6  6  6  6  6  6  6  6  6  6  6  6  6  6  6
CENTRE ASSIGNMENTS    6  6  6  6  6  6  6  6  6  6  6  6  7  7  7  7  7  7  7  7
CENTRE ASSIGNMENTS    7  7  7  7  7  7  7  7  7  7  7  7  7  7  7  7  7  7  7  8
CENTRE ASSIGNMENTS    8  8  8  8  8  8  8  8  8  8  8  8  8  8  8  8  8  8  8  8
CENTRE ASSIGNMENTS    8  8  8  8  8  8  8  8  8  8  8  8  8  8  8  8  8  8  8  8
CENTRE ASSIGNMENTS    8  8  8  8  8  8  8  8  8  8  8  8  8  8  8  8  8  8  8  8
CENTRE ASSIGNMENTS    8  8  8  8  8  8  8  8  8  8  8  9  9  9  9  9  9  9  9  9
CENTRE ASSIGNMENTS    9  9  9  9  9  9  9  9  9  9  9  9  9  9  9  9  9  9 10 10
CENTRE ASSIGNMENTS   10 10 10 10 10 10 10 10 10 10 10 10 10 10 10 10 10 10 10 10
CENTRE ASSIGNMENTS   10 10 10 10 10 11 11 11 11 11 11 11 11 11 11 11 11 11 11 11
CENTRE ASSIGNMENTS   11 11 11 11 11 11 11 11 11 11 11 11 11 11 11 11 11 11 11 11
CENTRE ASSIGNMENTS   11 11 11 11 11 11 11 11 11 11 11 11 11 11 11 11 11 11 11 11
CENTRE ASSIGNMENTS   11 11 11 11 11 11 11 11 11 11 11 11 11 11 11 11 11 12 12 12
CENTRE ASSIGNMENTS   12 12 12 12 12 12 12 12 12 12 12 12 12 12 12 12 12 12 12 12
CENTRE ASSIGNMENTS   12 12 12 12 13 13 13 13 13 13 13 13 13 13 13 13 13 13 13 13
CENTRE ASSIGNMENTS   13 13 13 13 13 13 13 13 13 13 13 14 14 14 14 14 14 14 14 14
CENTRE ASSIGNMENTS   14 14 14 14 14 14 14 14 14 14 14 14 14 14 14 14 14 14 14 14
CENTRE ASSIGNMENTS   14 14 14 14 14 14 14 14 14 14 14 14 14 14 14 14 14 14 14 14
CENTRE ASSIGNMENTS   14 14 14 14 14 14 14 14 14 14 14 14 14 14 14 14 14 14 14 14
CENTRE ASSIGNMENTS   14 14 14 14 14 14 14 14 14 14 14 14 14 14 14 14 14 14 14 14
CENTRE ASSIGNMENTS   14 14 14 14 14 14 14 14 14 14 14 14 14 14 14 14 14 14 14 14
CENTRE ASSIGNMENTS   14 14 14 14 14 14 14 14 14 14 14 14 14 14 14 14 14 14 14 14
CENTRE ASSIGNMENTS   14 14 14 14 14 14 14 14 14 14 14 14 14 14 14 14 14 14 14 14
CENTRE ASSIGNMENTS   14 14 14 14 14 14 14 14 14 14 14 14 14 14 14 14 14 14 14 14
CENTRE ASSIGNMENTS   14 14 14 14 14 14 14 14 14 14 14 14 14 14 14 14 14 14 14 14
CENTRE ASSIGNMENTS   14 14 14 14 14 14 14 14 14 14 14 14 14 14 14 14 14 14 14 14
CENTRE ASSIGNMENTS   14 14 14 14 14 14 14 14
TYPE ASSIGNMENTS      1  1  1  1  1  1  1  1  1  1  1  1  1  1  1  1  2  2  2  3
TYPE ASSIGNMENTS      3  3  4  4  4  2  3  4  2  3  4  2  3  4  5  6  7  8  9 10
TYPE ASSIGNMENTS      5  6  7  8  9 10  5  6  7  8  9 10 11 12 13 17 14 15 18 19
TYPE ASSIGNMENTS     16 20 11 12 13 17 14 15 18 19 16 20  1  1  1  1  1  1  2  3
TYPE ASSIGNMENTS      4  2  3  4  2  3  4  5  6  7  8  9 10  5  6  7  8  9 10  1
TYPE ASSIGNMENTS      1  1  1  1  1  2  3  4  2  3  4  2  3  4  5  6  7  8  9 10
TYPE ASSIGNMENTS      5  6  7  8  9 10  1  1  1  1  1  1  2  3  4  2  3  4  2  3
TYPE ASSIGNMENTS      4  5  6  7  8  9 10  5  6  7  8  9 10  1  1  1  1  1  1  1
TYPE ASSIGNMENTS      1  1  1  1  1  1  1  1  1  2  2  2  3  3  3  4  4  4  2  3
TYPE ASSIGNMENTS      4  2  3  4  2  3  4  5  6  7  8  9 10  5  6  7  8  9 10  5
TYPE ASSIGNMENTS      6  7  8  9 10 11 12 13 17 14 15 18 19 16 20 11 12 13 17 14
TYPE ASSIGNMENTS     15 18 19 16 20  1  1  1  1  1  1  2  3  4  2  3  4  2  3  4
TYPE ASSIGNMENTS      5  6  7  8  9 10  5  6  7  8  9 10  1  1  1  1  1  1  2  3
TYPE ASSIGNMENTS      4  2  3  4  2  3  4  5  6  7  8  9 10  5  6  7  8  9 10  1
TYPE ASSIGNMENTS      1  1  1  1  1  1  1  1  1  1  1  1  1  1  1  2  2  2  3  3
TYPE ASSIGNMENTS      3  4  4  4  2  3  4  2  3  4  2  3  4  5  6  7  8  9 10  5
TYPE ASSIGNMENTS      6  7  8  9 10  5  6  7  8  9 10 11 12 13 17 14 15 18 19 16
TYPE ASSIGNMENTS     20 11 12 13 17 14 15 18 19 16 20  1  1  1  1  1  1  2  3  4
TYPE ASSIGNMENTS      2  3  4  2  3  4  5  6  7  8  9 10  5  6  7  8  9 10  1  1
TYPE ASSIGNMENTS      1  1  1  1  2  3  4  2  3  4  2  3  4  5  6  7  8  9 10  5
TYPE ASSIGNMENTS      6  7  8  9 10  1  1  1  1  1  1  1  1  1  1  1  1  1  1  1
TYPE ASSIGNMENTS      1  2  2  2  3  3  3  4  4  4  2  3  4  2  3  4  2  3  4  5
TYPE ASSIGNMENTS      6  7  8  9 10  5  6  7  8  9 10  5  6  7  8  9 10 11 12 13
TYPE ASSIGNMENTS     17 14 15 18 19 16 20 11 12 13 17 14 15 18 19 16 20  1  1  1
TYPE ASSIGNMENTS      1  1  1  2  3  4  2  3  4  2  3  4  5  6  7  8  9 10  5  6
TYPE ASSIGNMENTS      7  8  9 10  1  1  1  1  1  1  2  3  4  2  3  4  2  3  4  5
TYPE ASSIGNMENTS      6  7  8  9 10  5  6  7  8  9 10  1  1  1  1  1  1  1  1  1
TYPE ASSIGNMENTS      1  1  1  1  1  1  1  1  1  1  1  1  1  1  1  1  1  1  1  1
TYPE ASSIGNMENTS      1  1  1  1  1  1  1  1  1  1  1  1  1  1  1  1  1  1  1  1
TYPE ASSIGNMENTS      1  2  2  2  2  2  2  2  2  2  3  3  3  3  3  3  3  3  3  4
TYPE ASSIGNMENTS      4  4  4  4  4  4  4  4  2  2  2  2  2  2  2  2  2  3  3  3
TYPE ASSIGNMENTS      3  3  3  3  3  3  4  4  4  4  4  4  4  4  4  2  2  2  2  2
TYPE ASSIGNMENTS      2  2  2  3  3  3  3  3  3  3  3  4  4  4  4  4  4  4  4  2
TYPE ASSIGNMENTS      3  4  2  3  4  2  3  4  5  5  5  5  5  5  5  6  6  6  6  6
TYPE ASSIGNMENTS      6  6  7  7  7  7  7  7  7  8  8  8  8  8  8  8  9  9  9  9
TYPE ASSIGNMENTS      9  9  9 10 10 10 10 10 10 10  5  6  7  8  9 10  5  6  7  8
TYPE ASSIGNMENTS      9 10  5  6  7  8  9 10 11 12 13 17 14 15 18 19 16 20 11 12
TYPE ASSIGNMENTS     13 17 14 15 18 19 16 20
EXPONENTS  0.8236000D+04 0.1235000D+04 0.2808000D+03 0.7927000D+02 0.2559000D+02
EXPONENTS  0.8997000D+01 0.3319000D+01 0.2808000D+03 0.7927000D+02 0.2559000D+02
EXPONENTS  0.8997000D+01 0.3319000D+01 0.3643000D+00 0.9059000D+00 0.1285000D+00
EXPONENTS  0.4402000D-01 0.1871000D+02 0.4133000D+01 0.1200000D+01 0.1871000D+02
EXPONENTS  0.4133000D+01 0.1200000D+01 0.1871000D+02 0.4133000D+01 0.1200000D+01
EXPONENTS  0.3827000D+00 0.3827000D+00 0.3827000D+00 0.1209000D+00 0.1209000D+00
EXPONENTS  0.1209000D+00 0.3569000D-01 0.3569000D-01 0.3569000D-01 0.1097000D+01
EXPONENTS  0.1097000D+01 0.1097000D+01 0.1097000D+01 0.1097000D+01 0.1097000D+01
EXPONENTS  0.3180000D+00 0.3180000D+00 0.3180000D+00 0.3180000D+00 0.3180000D+00
EXPONENTS  0.3180000D+00 0.1000000D+00 0.1000000D+00 0.1000000D+00 0.1000000D+00
EXPONENTS  0.1000000D+00 0.1000000D+00 0.7610000D+00 0.7610000D+00 0.7610000D+00
EXPONENTS  0.7610000D+00 0.7610000D+00 0.7610000D+00 0.7610000D+00 0.7610000D+00
EXPONENTS  0.7610000D+00 0.7610000D+00 0.2680000D+00 0.2680000D+00 0.2680000D+00
EXPONENTS  0.2680000D+00 0.2680000D+00 0.2680000D+00 0.2680000D+00 0.2680000D+00
EXPONENTS  0.2680000D+00 0.2680000D+00 0.3387000D+02 0.5095000D+01 0.1159000D+01
EXPONENTS  0.3258000D+00 0.1027000D+00 0.2526000D-01 0.1407000D+01 0.1407000D+01
EXPONENTS  0.1407000D+01 0.3880000D+00 0.3880000D+00 0.3880000D+00 0.1020000D+00
EXPONENTS  0.1020000D+00 0.1020000D+00 0.1057000D+01 0.1057000D+01 0.1057000D+01
EXPONENTS  0.1057000D+01 0.1057000D+01 0.1057000D+01 0.2470000D+00 0.2470000D+00
EXPONENTS  0.2470000D+00 0.2470000D+00 0.2470000D+00 0.2470000D+00 0.3387000D+02
EXPONENTS  0.5095000D+01 0.1159000D+01 0.3258000D+00 0.1027000D+00 0.2526000D-01
EXPONENTS  0.1407000D+01 0.1407000D+01 0.1407000D+01 0.3880000D+00 0.3880000D+00
EXPONENTS  0.3880000D+00 0.1020000D+00 0.1020000D+00 0.1020000D+00 0.1057000D+01
EXPONENTS  0.1057000D+01 0.1057000D+01 0.1057000D+01 0.1057000D+01 0.1057000D+01
EXPONENTS  0.2470000D+00 0.2470000D+00 0.2470000D+00 0.2470000D+00 0.2470000D+00
EXPONENTS  0.2470000D+00 0.3387000D+02 0.5095000D+01 0.1159000D+01 0.3258000D+00
EXPONENTS  0.1027000D+00 0.2526000D-01 0.1407000D+01 0.1407000D+01 0.1407000D+01
EXPONENTS  0.3880000D+00 0.3880000D+00 0.3880000D+00 0.1020000D+00 0.1020000D+00
EXPONENTS  0.1020000D+00 0.1057000D+01 0.1057000D+01 0.1057000D+01 0.1057000D+01
EXPONENTS  0.1057000D+01 0.1057000D+01 0.2470000D+00 0.2470000D+00 0.2470000D+00
EXPONENTS  0.2470000D+00 0.2470000D+00 0.2470000D+00 0.8236000D+04 0.1235000D+04
EXPONENTS  0.2808000D+03 0.7927000D+02 0.2559000D+02 0.8997000D+01 0.3319000D+01
EXPONENTS  0.2808000D+03 0.7927000D+02 0.2559000D+02 0.8997000D+01 0.3319000D+01
EXPONENTS  0.3643000D+00 0.9059000D+00 0.1285000D+00 0.4402000D-01 0.1871000D+02
EXPONENTS  0.4133000D+01 0.1200000D+01 0.1871000D+02 0.4133000D+01 0.1200000D+01
EXPONENTS  0.1871000D+02 0.4133000D+01 0.1200000D+01 0.3827000D+00 0.3827000D+00
EXPONENTS  0.3827000D+00 0.1209000D+00 0.1209000D+00 0.1209000D+00 0.3569000D-01
EXPONENTS  0.3569000D-01 0.3569000D-01 0.1097000D+01 0.1097000D+01 0.1097000D+01
EXPONENTS  0.1097000D+01 0.1097000D+01 0.1097000D+01 0.3180000D+00 0.3180000D+00
EXPONENTS  0.3180000D+00 0.3180000D+00 0.3180000D+00 0.3180000D+00 0.1000000D+00
EXPONENTS  0.1000000D+00 0.1000000D+00 0.1000000D+00 0.1000000D+00 0.1000000D+00
EXPONENTS  0.7610000D+00 0.7610000D+00 0.7610000D+00 0.7610000D+00 0.7610000D+00
EXPONENTS  0.7610000D+00 0.7610000D+00 0.7610000D+00 0.7610000D+00 0.7610000D+00
EXPONENTS  0.2680000D+00 0.2680000D+00 0.2680000D+00 0.2680000D+00 0.2680000D+00
EXPONENTS  0.2680000D+00 0.2680000D+00 0.2680000D+00 0.2680000D+00 0.2680000D+00
EXPONENTS  0.3387000D+02 0.5095000D+01 0.1159000D+01 0.3258000D+00 0.1027000D+00
EXPONENTS  0.2526000D-01 0.1407000D+01 0.1407000D+01 0.1407000D+01 0.3880000D+00
EXPONENTS  0.3880000D+00 0.3880000D+00 0.1020000D+00 0.1020000D+00 0.1020000D+00
EXPONENTS  0.1057000D+01 0.1057000D+01 0.1057000D+01 0.1057000D+01 0.1057000D+01
EXPONENTS  0.1057000D+01 0.2470000D+00 0.2470000D+00 0.2470000D+00 0.2470000D+00
EXPONENTS  0.2470000D+00 0.2470000D+00 0.3387000D+02 0.5095000D+01 0.1159000D+01
EXPONENTS  0.3258000D+00 0.1027000D+00 0.2526000D-01 0.1407000D+01 0.1407000D+01
EXPONENTS  0.1407000D+01 0.3880000D+00 0.3880000D+00 0.3880000D+00 0.1020000D+00
EXPONENTS  0.1020000D+00 0.1020000D+00 0.1057000D+01 0.1057000D+01 0.1057000D+01
EXPONENTS  0.1057000D+01 0.1057000D+01 0.1057000D+01 0.2470000D+00 0.2470000D+00
EXPONENTS  0.2470000D+00 0.2470000D+00 0.2470000D+00 0.2470000D+00 0.8236000D+04
EXPONENTS  0.1235000D+04 0.2808000D+03 0.7927000D+02 0.2559000D+02 0.8997000D+01
EXPONENTS  0.3319000D+01 0.2808000D+03 0.7927000D+02 0.2559000D+02 0.8997000D+01
EXPONENTS  0.3319000D+01 0.3643000D+00 0.9059000D+00 0.1285000D+00 0.4402000D-01
EXPONENTS  0.1871000D+02 0.4133000D+01 0.1200000D+01 0.1871000D+02 0.4133000D+01
EXPONENTS  0.1200000D+01 0.1871000D+02 0.4133000D+01 0.1200000D+01 0.3827000D+00
EXPONENTS  0.3827000D+00 0.3827000D+00 0.1209000D+00 0.1209000D+00 0.1209000D+00
EXPONENTS  0.3569000D-01 0.3569000D-01 0.3569000D-01 0.1097000D+01 0.1097000D+01
EXPONENTS  0.1097000D+01 0.1097000D+01 0.1097000D+01 0.1097000D+01 0.3180000D+00
EXPONENTS  0.3180000D+00 0.3180000D+00 0.3180000D+00 0.3180000D+00 0.3180000D+00
EXPONENTS  0.1000000D+00 0.1000000D+00 0.1000000D+00 0.1000000D+00 0.1000000D+00
EXPONENTS  0.1000000D+00 0.7610000D+00 0.7610000D+00 0.7610000D+00 0.7610000D+00
EXPONENTS  0.7610000D+00 0.7610000D+00 0.7610000D+00 0.7610000D+00 0.7610000D+00
EXPONENTS  0.7610000D+00 0.2680000D+00 0.2680000D+00 0.2680000D+00 0.2680000D+00
EXPONENTS  0.2680000D+00 0.2680000D+00 0.2680000D+00 0.2680000D+00 0.2680000D+00
EXPONENTS  0.2680000D+00 0.3387000D+02 0.5095000D+01 0.1159000D+01 0.3258000D+00
EXPONENTS  0.1027000D+00 0.2526000D-01 0.1407000D+01 0.1407000D+01 0.1407000D+01
EXPONENTS  0.3880000D+00 0.3880000D+00 0.3880000D+00 0.1020000D+00 0.1020000D+00
EXPONENTS  0.1020000D+00 0.1057000D+01 0.1057000D+01 0.1057000D+01 0.1057000D+01
EXPONENTS  0.1057000D+01 0.1057000D+01 0.2470000D+00 0.2470000D+00 0.2470000D+00
EXPONENTS  0.2470000D+00 0.2470000D+00 0.2470000D+00 0.3387000D+02 0.5095000D+01
EXPONENTS  0.1159000D+01 0.3258000D+00 0.1027000D+00 0.2526000D-01 0.1407000D+01
EXPONENTS  0.1407000D+01 0.1407000D+01 0.3880000D+00 0.3880000D+00 0.3880000D+00
EXPONENTS  0.1020000D+00 0.1020000D+00 0.1020000D+00 0.1057000D+01 0.1057000D+01
EXPONENTS  0.1057000D+01 0.1057000D+01 0.1057000D+01 0.1057000D+01 0.2470000D+00
EXPONENTS  0.2470000D+00 0.2470000D+00 0.2470000D+00 0.2470000D+00 0.2470000D+00
EXPONENTS  0.8236000D+04 0.1235000D+04 0.2808000D+03 0.7927000D+02 0.2559000D+02
EXPONENTS  0.8997000D+01 0.3319000D+01 0.2808000D+03 0.7927000D+02 0.2559000D+02
EXPONENTS  0.8997000D+01 0.3319000D+01 0.3643000D+00 0.9059000D+00 0.1285000D+00
EXPONENTS  0.4402000D-01 0.1871000D+02 0.4133000D+01 0.1200000D+01 0.1871000D+02
EXPONENTS  0.4133000D+01 0.1200000D+01 0.1871000D+02 0.4133000D+01 0.1200000D+01
EXPONENTS  0.3827000D+00 0.3827000D+00 0.3827000D+00 0.1209000D+00 0.1209000D+00
EXPONENTS  0.1209000D+00 0.3569000D-01 0.3569000D-01 0.3569000D-01 0.1097000D+01
EXPONENTS  0.1097000D+01 0.1097000D+01 0.1097000D+01 0.1097000D+01 0.1097000D+01
EXPONENTS  0.3180000D+00 0.3180000D+00 0.3180000D+00 0.3180000D+00 0.3180000D+00
EXPONENTS  0.3180000D+00 0.1000000D+00 0.1000000D+00 0.1000000D+00 0.1000000D+00
EXPONENTS  0.1000000D+00 0.1000000D+00 0.7610000D+00 0.7610000D+00 0.7610000D+00
EXPONENTS  0.7610000D+00 0.7610000D+00 0.7610000D+00 0.7610000D+00 0.7610000D+00
EXPONENTS  0.7610000D+00 0.7610000D+00 0.2680000D+00 0.2680000D+00 0.2680000D+00
EXPONENTS  0.2680000D+00 0.2680000D+00 0.2680000D+00 0.2680000D+00 0.2680000D+00
EXPONENTS  0.2680000D+00 0.2680000D+00 0.3387000D+02 0.5095000D+01 0.1159000D+01
EXPONENTS  0.3258000D+00 0.1027000D+00 0.2526000D-01 0.1407000D+01 0.1407000D+01
EXPONENTS  0.1407000D+01 0.3880000D+00 0.3880000D+00 0.3880000D+00 0.1020000D+00
EXPONENTS  0.1020000D+00 0.1020000D+00 0.1057000D+01 0.1057000D+01 0.1057000D+01
EXPONENTS  0.1057000D+01 0.1057000D+01 0.1057000D+01 0.2470000D+00 0.2470000D+00
EXPONENTS  0.2470000D+00 0.2470000D+00 0.2470000D+00 0.2470000D+00 0.3387000D+02
EXPONENTS  0.5095000D+01 0.1159000D+01 0.3258000D+00 0.1027000D+00 0.2526000D-01
EXPONENTS  0.1407000D+01 0.1407000D+01 0.1407000D+01 0.3880000D+00 0.3880000D+00
EXPONENTS  0.3880000D+00 0.1020000D+00 0.1020000D+00 0.1020000D+00 0.1057000D+01
EXPONENTS  0.1057000D+01 0.1057000D+01 0.1057000D+01 0.1057000D+01 0.1057000D+01
EXPONENTS  0.2470000D+00 0.2470000D+00 0.2470000D+00 0.2470000D+00 0.2470000D+00
EXPONENTS  0.2470000D+00 0.1063900D+08 0.1593400D+07 0.3626100D+06 0.1027000D+06
EXPONENTS  0.3350100D+05 0.1209300D+05 0.4715900D+04 0.1955600D+04 0.8526100D+03
EXPONENTS  0.3876700D+03 0.1826800D+03 0.8824500D+02 0.3926300D+02 0.9405700D+01
EXPONENTS  0.1899500D+01 0.3350100D+05 0.1209300D+05 0.4715900D+04 0.1955600D+04
EXPONENTS  0.8526100D+03 0.3876700D+03 0.1826800D+03 0.8824500D+02 0.3926300D+02
EXPONENTS  0.1923400D+02 0.9405700D+01 0.1899500D+01 0.4715900D+04 0.8526100D+03
EXPONENTS  0.3876700D+03 0.1826800D+03 0.8824500D+02 0.3926300D+02 0.1923400D+02
EXPONENTS  0.9405700D+01 0.4160100D+01 0.1899500D+01 0.4715900D+04 0.8526100D+03
EXPONENTS  0.3876700D+03 0.8824500D+02 0.3926300D+02 0.1923400D+02 0.9405700D+01
EXPONENTS  0.4160100D+01 0.1899500D+01 0.3011400D+00 0.6047200D+00 0.1251500D+00
EXPONENTS  0.4559300D-01 0.8676500D+04 0.2055900D+04 0.6662300D+03 0.2531000D+03
EXPONENTS  0.1061200D+03 0.4724200D+02 0.2182500D+02 0.9968400D+01 0.1998200D+01
EXPONENTS  0.8676500D+04 0.2055900D+04 0.6662300D+03 0.2531000D+03 0.1061200D+03
EXPONENTS  0.4724200D+02 0.2182500D+02 0.9968400D+01 0.1998200D+01 0.8676500D+04
EXPONENTS  0.2055900D+04 0.6662300D+03 0.2531000D+03 0.1061200D+03 0.4724200D+02
EXPONENTS  0.2182500D+02 0.9968400D+01 0.1998200D+01 0.8676500D+04 0.6662300D+03
EXPONENTS  0.2531000D+03 0.1061200D+03 0.4724200D+02 0.2182500D+02 0.9968400D+01
EXPONENTS  0.4517100D+01 0.1998200D+01 0.8676500D+04 0.6662300D+03 0.2531000D+03
EXPONENTS  0.1061200D+03 0.4724200D+02 0.2182500D+02 0.9968400D+01 0.4517100D+01
EXPONENTS  0.1998200D+01 0.8676500D+04 0.6662300D+03 0.2531000D+03 0.1061200D+03
EXPONENTS  0.4724200D+02 0.2182500D+02 0.9968400D+01 0.4517100D+01 0.1998200D+01
EXPONENTS  0.6662300D+03 0.1061200D+03 0.4724200D+02 0.2182500D+02 0.9968400D+01
EXPONENTS  0.4517100D+01 0.1998200D+01 0.2814500D+00 0.6662300D+03 0.1061200D+03
EXPONENTS  0.4724200D+02 0.2182500D+02 0.9968400D+01 0.4517100D+01 0.1998200D+01
EXPONENTS  0.2814500D+00 0.6662300D+03 0.1061200D+03 0.4724200D+02 0.2182500D+02
EXPONENTS  0.9968400D+01 0.4517100D+01 0.1998200D+01 0.2814500D+00 0.7098800D+00
EXPONENTS  0.7098800D+00 0.7098800D+00 0.1020400D+00 0.1020400D+00 0.1020400D+00
EXPONENTS  0.3514200D-01 0.3514200D-01 0.3514200D-01 0.4038300D+03 0.1211700D+03
EXPONENTS  0.4634500D+02 0.1972100D+02 0.8862400D+01 0.3996200D+01 0.1763600D+01
EXPONENTS  0.4038300D+03 0.1211700D+03 0.4634500D+02 0.1972100D+02 0.8862400D+01
EXPONENTS  0.3996200D+01 0.1763600D+01 0.4038300D+03 0.1211700D+03 0.4634500D+02
EXPONENTS  0.1972100D+02 0.8862400D+01 0.3996200D+01 0.1763600D+01 0.4038300D+03
EXPONENTS  0.1211700D+03 0.4634500D+02 0.1972100D+02 0.8862400D+01 0.3996200D+01
EXPONENTS  0.1763600D+01 0.4038300D+03 0.1211700D+03 0.4634500D+02 0.1972100D+02
EXPONENTS  0.8862400D+01 0.3996200D+01 0.1763600D+01 0.4038300D+03 0.1211700D+03
EXPONENTS  0.4634500D+02 0.1972100D+02 0.8862400D+01 0.3996200D+01 0.1763600D+01
EXPONENTS  0.7061900D+00 0.7061900D+00 0.7061900D+00 0.7061900D+00 0.7061900D+00
EXPONENTS  0.7061900D+00 0.2639000D+00 0.2639000D+00 0.2639000D+00 0.2639000D+00
EXPONENTS  0.2639000D+00 0.2639000D+00 0.1047000D+00 0.1047000D+00 0.1047000D+00
EXPONENTS  0.1047000D+00 0.1047000D+00 0.1047000D+00 0.5515000D+00 0.5515000D+00
EXPONENTS  0.5515000D+00 0.5515000D+00 0.5515000D+00 0.5515000D+00 0.5515000D+00
EXPONENTS  0.5515000D+00 0.5515000D+00 0.5515000D+00 0.2580000D+00 0.2580000D+00
EXPONENTS  0.2580000D+00 0.2580000D+00 0.2580000D+00 0.2580000D+00 0.2580000D+00
EXPONENTS  0.2580000D+00 0.2580000D+00 0.2580000D+00
MO    1     MO 0.0        OCC NO =    2.0000000  ORB. ENERGY = -483.255046
  0.40486518D-06  0.75475026D-06  0.12756308D-05  0.19175110D-05  0.23553188D-05
  0.19878060D-05  0.74746695D-06 -0.25660144D-07 -0.19179368D-06 -0.71677678D-06
 -0.19996956D-05 -0.26790408D-05  0.31634476D-05  0.59676004D-05 -0.11515338D-03
 -0.24916476D-05  0.71860298D-06  0.67373597D-06  0.47974015D-06  0.94337257D-06
  0.88447175D-06  0.62979657D-06  0.16084546D-08  0.15080284D-08  0.10738061D-08
 -0.30487289D-05 -0.29657109D-05 -0.83265276D-08  0.14041219D-04  0.72081196D-06
 -0.78833684D-07 -0.63621101D-08 -0.27103414D-06  0.20075112D-08 -0.88710498D-06
 -0.44423345D-06  0.13313384D-05  0.17110465D-05 -0.48404558D-07 -0.31563346D-08
 -0.60306011D-06  0.76786359D-06 -0.16480348D-06 -0.38230067D-05  0.49965036D-07
  0.41935571D-08  0.42508703D-05 -0.20963437D-05 -0.21545266D-05  0.31329697D-05
  0.19129865D-07  0.64777109D-07 -0.38272583D-06  0.46286355D-06 -0.40493667D-08
  0.10567478D-05 -0.36878033D-05  0.62536304D-08  0.91429684D-07  0.22992126D-05
  0.58944696D-08 -0.27531794D-07  0.25837155D-06 -0.43777748D-06 -0.10449731D-07
 -0.17105975D-05 -0.24329672D-05 -0.16689082D-07  0.93548284D-06  0.37462996D-05
  0.48038275D-07 -0.18691348D-08 -0.14664439D-06 -0.26447920D-06 -0.38997443D-06
  0.17081567D-04  0.42812583D-04 -0.16644128D-06 -0.53301742D-06  0.87608133D-06
 -0.67199456D-06 -0.16498620D-06  0.33318186D-05 -0.33283585D-05 -0.13634982D-05
  0.42335907D-05 -0.42879632D-05 -0.33061071D-06  0.26297462D-06  0.67636098D-07
 -0.14808694D-06  0.56940931D-06 -0.21419067D-05  0.59319201D-06 -0.11632047D-06
 -0.47687153D-06 -0.72634997D-06 -0.57773821D-06  0.10319410D-05 -0.14776980D-06
 -0.26650891D-06 -0.39296724D-06  0.17120759D-04  0.41840584D-04 -0.16167040D-06
 -0.47715371D-06  0.88253153D-06  0.65658339D-06 -0.23337434D-06  0.32547948D-05
  0.33885016D-05 -0.13663684D-05  0.41862586D-05  0.41687092D-05 -0.30299138D-06
  0.22897012D-06  0.74021260D-07 -0.15886194D-06 -0.56388099D-06  0.21422008D-05
  0.58406411D-06 -0.11467471D-06 -0.46938940D-06 -0.74913071D-06  0.57394724D-06
 -0.10382693D-05 -0.30859718D-06 -0.55656772D-06 -0.82065877D-06  0.21031807D-04
 -0.52111072D-04  0.45512047D-06 -0.18573515D-05 -0.13009361D-05 -0.34880403D-08
 -0.84257479D-05 -0.10240226D-05 -0.37933942D-07  0.37357822D-05  0.51237998D-05
 -0.23601467D-07  0.20343274D-05 -0.16064613D-06 -0.18736813D-05  0.13074125D-05
  0.37525253D-07 -0.90893841D-08  0.26078376D-06 -0.51728851D-06  0.25650475D-06
  0.34084291D-06  0.15090702D-07 -0.57297823D-08 -0.60628049D-06 -0.11302290D-05
 -0.19102410D-05 -0.28714484D-05 -0.35270601D-05 -0.29767143D-05 -0.11193223D-05
  0.34243217D-07  0.25594683D-06  0.95653174D-06  0.26685746D-05  0.35751543D-05
 -0.42215906D-05 -0.92708127D-06 -0.14160069D-04  0.13251999D-04 -0.12020695D-05
 -0.11270166D-05 -0.80250295D-06  0.32421488D-06  0.30397206D-06  0.21644621D-06
 -0.35618704D-07 -0.33394799D-07 -0.23779086D-07  0.78431306D-05  0.11235211D-05
  0.78123533D-07  0.20390997D-04 -0.21317216D-04  0.26914595D-06 -0.35964732D-06
 -0.59311641D-06  0.43905558D-08 -0.26117004D-05  0.13502554D-05  0.12614450D-05
  0.45458197D-05 -0.33607693D-08 -0.31749595D-07  0.96480333D-06 -0.25312929D-06
 -0.71167404D-06 -0.12550249D-04  0.13857010D-06  0.25515474D-06  0.51229770D-05
 -0.61024316D-06 -0.45127338D-05 -0.97387619D-05 -0.67760901D-07 -0.57962507D-07
 -0.16719763D-06  0.21510519D-06  0.94891994D-08  0.15286918D-05 -0.18800844D-05
 -0.42366888D-07 -0.10270989D-05  0.12347689D-05  0.13899290D-07  0.18832094D-07
  0.19131299D-06 -0.71752779D-06  0.20391002D-08  0.12932640D-05  0.33645391D-05
 -0.87867228D-07 -0.18672029D-05 -0.12119557D-05  0.81749928D-07 -0.11101707D-06
 -0.96152968D-08 -0.17341584D-07 -0.25570155D-07  0.64371768D-05  0.40275517D-04
  0.10559909D-07  0.11142733D-05  0.36687243D-06 -0.36563309D-06  0.11259704D-05
 -0.43059054D-06  0.14985882D-05  0.23593674D-05 -0.43948522D-05  0.33304514D-05
 -0.35901454D-06  0.38680143D-06 -0.27786894D-07 -0.72333622D-06  0.23434825D-05
  0.87417677D-07 -0.74745655D-06  0.35050274D-06  0.39695381D-06  0.16563663D-06
 -0.46840802D-06  0.79887401D-06 -0.39065631D-08 -0.70456474D-08 -0.10388803D-07
  0.56586755D-05  0.40670196D-04 -0.52753804D-08  0.10976665D-05  0.41331151D-06
  0.43238101D-06  0.12629169D-05 -0.42099777D-06 -0.12435514D-05  0.23390736D-05
 -0.44171985D-05 -0.33409919D-05 -0.41380351D-06  0.43787235D-06 -0.24068832D-07
 -0.70723103D-06 -0.23974818D-05 -0.13205799D-06 -0.69973147D-06  0.33142325D-06
  0.36830821D-06  0.15111806D-06  0.47607899D-06 -0.78757627D-06  0.63986853D-06
  0.11928438D-05  0.20160686D-05  0.30305271D-05  0.37224598D-05  0.31416247D-05
  0.11813329D-05 -0.35865290D-07 -0.26807082D-06 -0.10018419D-05 -0.27949828D-05
 -0.37445064D-05  0.44215638D-05  0.36145052D-05 -0.12458466D-04 -0.24027798D-04
 -0.23599120D-05 -0.22125675D-05 -0.15754799D-05  0.10468630D-05  0.98150061D-06
  0.69888691D-06  0.54388122D-08  0.50992321D-08  0.36309571D-08  0.27714896D-05
  0.10870172D-04 -0.45742148D-07  0.50244968D-04 -0.43501155D-04  0.11356332D-06
  0.20481027D-07 -0.75393007D-06 -0.28241717D-08  0.17354660D-06  0.22132986D-05
 -0.23868452D-05 -0.69695191D-05 -0.92522732D-07  0.74193485D-08  0.10864036D-04
 -0.54680512D-05 -0.53959847D-05  0.10983099D-04  0.92845337D-07  0.66434029D-08
 -0.10746315D-04  0.36135187D-05  0.71327965D-05  0.10092202D-04 -0.95699704D-07
 -0.10008592D-07 -0.23058954D-05 -0.17059480D-05 -0.11222090D-07  0.55912899D-05
 -0.16190292D-05  0.54915110D-08  0.13263961D-05  0.67368733D-05  0.28174760D-07
  0.16894442D-08  0.16149415D-06 -0.57218046D-06 -0.11732259D-07  0.23240997D-06
  0.19324233D-05  0.99292341D-08 -0.71689242D-06 -0.21588188D-06  0.25267542D-07
  0.14628774D-06 -0.43802852D-06 -0.79000248D-06 -0.11648582D-05  0.14649197D-04
 -0.66004467D-04 -0.42323646D-06  0.23536785D-05 -0.58383284D-06 -0.25218598D-05
 -0.11857638D-05  0.83752900D-05 -0.56797530D-05  0.13024360D-05 -0.55658775D-05
  0.60754573D-05 -0.24876719D-05  0.18072503D-05  0.68042162D-06 -0.14790432D-05
 -0.23416385D-06 -0.32515515D-05  0.63635314D-06 -0.63638223D-06  0.29087508D-10
  0.14159631D-05 -0.56370179D-06 -0.96135966D-06 -0.44099710D-06 -0.79535643D-06
 -0.11727526D-05  0.14700497D-04 -0.65435660D-04 -0.43602358D-06  0.24228681D-05
 -0.56222182D-06  0.25096958D-05 -0.13180471D-05  0.82904462D-05  0.57048503D-05
  0.11959727D-05 -0.55235961D-05 -0.59910336D-05 -0.24565275D-05  0.17712834D-05
  0.68524408D-06 -0.14232122D-05  0.24877343D-06  0.32186554D-05  0.64384618D-06
 -0.64870936D-06  0.48631792D-08  0.14790795D-05  0.55957922D-06  0.95424519D-06
 -0.11430537D-05 -0.21308823D-05 -0.36014814D-05 -0.54136983D-05 -0.66497587D-05
 -0.56121617D-05 -0.21103194D-05  0.67422835D-07  0.50394392D-06  0.18833535D-05
  0.52542630D-05  0.70392638D-05 -0.83120580D-05 -0.82471979D-05  0.20067588D-03
 -0.99606167D-05  0.22486756D-06  0.21082763D-06  0.15012183D-06 -0.47729668D-06
 -0.44749598D-06 -0.31864380D-06  0.14710209D-07  0.13791756D-07  0.98205519D-08
  0.13418397D-04  0.17229373D-04 -0.49400520D-07  0.35203011D-04 -0.16356227D-04
 -0.22955850D-06  0.22397045D-05  0.12647250D-06  0.55848230D-08 -0.11876883D-04
  0.43479052D-05  0.75289773D-05 -0.17049270D-04 -0.73841104D-07 -0.76018860D-08
  0.41772672D-05 -0.40856167D-05 -0.91650442D-07  0.12739187D-04  0.50395538D-07
 -0.20457235D-06 -0.70729127D-05  0.50789201D-05  0.19939925D-05 -0.77767345D-05
 -0.74883838D-07  0.18089699D-07 -0.15791088D-06  0.13117068D-06  0.56378422D-09
  0.15158814D-05 -0.55795557D-05  0.20048900D-07 -0.10421488D-05  0.51860436D-05
 -0.21740253D-07 -0.16493827D-07 -0.18572978D-05  0.17073166D-05  0.16964699D-07
 -0.32458986D-05 -0.70529586D-05 -0.12406584D-07  0.88177921D-05  0.19310088D-05
 -0.38487512D-07 -0.10455002D-06  0.12291555D-05  0.22168326D-05  0.32687184D-05
 -0.27362504D-04 -0.46001068D-04  0.16474569D-06  0.88072477D-06  0.12208988D-06
 -0.47792750D-06 -0.12126204D-04  0.73392178D-05 -0.12584567D-04  0.28597283D-06
  0.41249215D-05 -0.67982066D-05  0.19075198D-05  0.11194274D-05 -0.30269472D-05
  0.62470661D-05 -0.62114278D-05  0.83535757D-05  0.98532078D-06 -0.53931496D-06
 -0.44600583D-06  0.21140492D-05  0.90835946D-06 -0.72711181D-06  0.12261325D-05
  0.22113804D-05  0.32606791D-05 -0.26829556D-04 -0.45542940D-04  0.16212711D-06
  0.85840464D-06  0.92545988D-07  0.46057821D-06 -0.12062990D-04  0.72655007D-05
  0.12353240D-04  0.35511636D-06  0.40573301D-05  0.67312725D-05  0.19167867D-05
  0.10952759D-05 -0.30120626D-05  0.62179322D-05  0.62360379D-05 -0.82456366D-05
  0.96446505D-06 -0.54388777D-06 -0.42057728D-06  0.21322203D-05 -0.90408536D-06
  0.70900087D-06  0.78332903D+00  0.14735599D+01  0.25508074D+01  0.41812632D+01
  0.65500125D+01  0.98452017D+01  0.14071108D+02  0.18679365D+02  0.21753470D+02
  0.19978046D+02  0.11678479D+02  0.30643649D+01  0.17422616D+00  0.30400592D-02
  0.30601654D-03  0.19267619D-04  0.55659710D-04  0.25510153D-03  0.75515609D-03
  0.21899747D-02  0.45520645D-02  0.65117824D-02  0.18671360D-02 -0.74613255D-02
 -0.72143799D-02 -0.15746487D-02  0.22792563D-04 -0.20895462D-05 -0.97481654D-05
 -0.19783178D-04 -0.77533716D-04 -0.54407244D-04  0.35432057D-03  0.10979178D-02
  0.13429993D-03 -0.95974678D-03 -0.45040913D-03 -0.44569472D-06 -0.61101209D-06
  0.11714580D-05  0.24897334D-05 -0.94118889D-05 -0.30435658D-04 -0.10585059D-04
  0.10353340D-03  0.23093316D-03 -0.15324022D-03  0.12935502D-03  0.98364277D-04
  0.27934600D-04  0.22260007D-03  0.31939788D-03  0.42291230D-03  0.48839010D-03
  0.45282972D-03  0.29324645D-03  0.10347471D-03  0.11922755D-04 -0.19478119D-07
  0.11669465D-03  0.16743940D-03  0.22170524D-03  0.25603096D-03  0.23738899D-03
  0.15372992D-03  0.54245018D-04  0.62503203D-05 -0.10211103D-07  0.32174563D-06
  0.46165695D-06  0.61127646D-06  0.70591792D-06  0.65451904D-06  0.42385774D-06
  0.14956211D-06  0.17233123D-07 -0.28153629D-10 -0.12130262D-05  0.34585539D-05
  0.16881646D-04  0.34981981D-04  0.43898934D-04  0.69615813D-05 -0.56351648D-04
 -0.49146808D-04 -0.12633918D-04 -0.50233846D-06  0.14322564D-05  0.69910278D-05
  0.14486739D-04  0.18179428D-04  0.28829303D-05 -0.23336346D-04 -0.20352677D-04
 -0.52319586D-05 -0.32182735D-09  0.91758711D-09  0.44788607D-08  0.92810510D-08
  0.11646803D-07  0.18469735D-08 -0.14950626D-07 -0.13039114D-07 -0.33518982D-08
  0.10569988D-04  0.14932634D-04 -0.69480764D-05  0.13924011D-04  0.15285447D-04
  0.41260213D-04  0.13002183D-04 -0.27915964D-04  0.42216181D-05  0.59640440D-05